LAMMPS data file. CGCMM style. atom_style full generated by VMD

4 atoms
3 bonds
2 angles
0 dihedrals
0 impropers

4 atom types
3 bond types
2 angle types
0 dihedral types
0 improper types

0 800.0 xlo xhi
0 800.0 ylo yhi
0 800.0 zlo zhi

Masses  #118.9 per residue

1 30000
2 30000
3 30000
4 30000

#Pair Coeffs #Done in input file now

Bond Coeffs  #3 bonds 3 of them 
# E = K(r -r_0)**2           Bond Coeffs are K (energy/distance**2) and r_0 (distance)  w^2 = 2K/m
1 30000.000 100.0000
2 30000.000 30.0000 
3 30000.000 100.000                      


Angle Coeffs   
                
1 1 120.0             # K and degrees      
2 1 120.0                                                                      
   
Atoms 
 
1 1 1 0.000000  150 286.6 200
2 1 2 0.000000  200 200 200 
3 1 3 0.000000  230 200 200 
4 1 4 0.000000  280 286.6 200 

Bonds
 
1 1 1 2  
2 2 2 3
3 3 3 4

Angles

1 1 1 2 3 
2 2 2 3 4
 

